# vtk DataFile Version 5.1
vtk output
ASCII
DATASET POLYDATA
POINTS 7742 float
53.4106 -38.2957 53.9848 55.2013 -39.1401 53.0094 55.4291 -37.2959 54.43 
53.0812 -40.1104 52.4332 55.1027 -41.033 51.8052 57.055 -40.0037 52.1166 
57.2069 -38.1253 53.3808 57.021 -41.7723 50.8639 58.844 -40.6947 50.9276 
58.9091 -38.9366 52.1838 60.6269 -39.5518 50.9916 60.7064 -37.7976 52.1408 
59.1008 -37.1328 53.3179 60.554 -41.3014 49.7625 62.2786 -40.0994 49.6791 
62.3527 -38.3431 50.8739 58.8413 -42.5105 49.8269 60.7395 -43.1949 49.0227 
62.2391 -41.9189 48.597 63.7929 -38.7526 49.3754 63.7914 -36.9381 50.3914 
62.3322 -36.4968 51.8114 62.7589 -44.0359 48.5517 64.0859 -42.6712 47.8666 
63.9021 -40.6595 48.3898 53.2059 -42.133 51.4144 55.369 -42.9144 50.8276 
61.3802 -45.3544 49.5491 63.5236 -46.0948 49.2463 64.7356 -44.7032 48.019 
59.3105 -44.6873 49.9577 60.0293 -46.5056 50.8716 62.1576 -47.1915 50.6408 
57.257 -44.0319 50.3395 58.0016 -45.913 51.1903 55.8893 -45.1972 51.5946 
53.7451 -44.4414 51.8 54.4995 -46.2896 52.9852 56.6761 -47.0141 52.7248 
55.2368 -48.0717 54.1251 57.4273 -48.7915 53.8666 58.7754 -47.7153 52.3347 
55.9981 -49.9082 55.1306 58.0026 -50.6461 54.7154 59.4096 -49.5178 53.436 
53.9539 -49.2362 55.5011 54.5688 -51.1159 56.2582 56.591 -51.7968 55.8947 
55.1806 -53.0345 56.9601 57.0567 -53.7466 56.4468 58.4677 -52.5419 55.3852 
53.2032 -52.3435 57.35 53.727 -54.3185 57.8463 55.6616 -55.0124 57.3996 
52.4883 -50.4048 56.521 51.1246 -51.6537 57.5993 51.7222 -53.608 58.2281 
49.7257 -52.9361 58.5721 50.1862 -54.9376 58.9205 52.1689 -55.6163 58.5929 
49.0263 -50.9443 57.8533 47.6997 -52.2733 58.8233 48.1756 -54.2855 59.2458 
50.4369 -49.6192 56.8527 48.3863 -48.9874 57.1638 46.9686 -50.3693 58.2051 
46.3062 -48.4515 57.5967 45.0057 -49.753 58.7494 45.5848 -51.6963 59.1899 
49.6304 -47.6769 55.9376 47.5205 -47.0995 56.2814 43.6102 -51.0681 59.6193 
43.9949 -53.1128 59.6612 46.0887 -53.7074 59.364 64.2484 -47.9391 50.129 
65.5155 -46.6996 48.6699 62.9822 -49.091 51.4874 64.9158 -49.8018 50.8208 
66.1615 -48.624 49.4694 63.678 -51.0215 52.0134 65.5386 -51.7291 51.3774 
66.7355 -50.5397 50.1168 67.9998 -49.4622 48.7912 67.4442 -47.5556 48.1729 
66.8314 -45.5114 47.4813 68.6928 -46.2729 46.8834 68.1656 -44.3406 46.3295 
66.2745 -43.586 46.8902 69.9395 -45.1405 45.6418 69.4683 -43.1722 45.1884 
67.6423 -42.3838 45.8443 69.3052 -48.2103 47.3726 70.5123 -47.0307 46.1938 
60.9766 -48.4148 52.0448 61.7777 -50.3029 52.7728 60.4924 -51.5513 53.9195 
62.3721 -52.2135 53.2082 71.7358 -45.946 44.9584 71.2269 -43.996 44.4605 
65.9919 -41.5753 46.6844 67.3861 -40.4462 45.6872 66.16 -39.4899 47.065 
67.7375 -38.417 45.9827 66.6472 -37.437 47.5412 65.064 -38.413 48.5963 
68.9449 -39.4825 44.7096 69.0807 -37.366 44.6845 68.0531 -36.3823 46.2616 
70.2999 -38.5202 43.4808 70.3991 -36.3468 43.3965 69.3225 -35.291 44.9238 
71.5999 -37.4839 42.103 71.4805 -35.3394 41.792 70.4168 -34.2118 43.3986 
68.2722 -34.2631 46.4504 67.113 -35.3586 47.9 68.9924 -41.4393 44.8735 
70.7223 -42.295 44.1289 70.3929 -40.3776 43.7792 72.4316 -43.0998 43.2945 
71.9843 -41.1628 42.936 73.6278 -42.0182 42.033 73.1714 -40.0119 41.6592 
71.5005 -39.1655 42.5789 72.8477 -45.0809 43.8708 74.0898 -44.0267 42.4577 
74.5425 -46.0087 42.9815 75.766 -44.95 41.6331 75.3152 -42.9522 41.1674 
73.2646 -47.045 44.3477 71.8777 -47.9116 45.6412 73.5632 -49.027 44.9411 
74.8589 -48.0642 43.5128 72.7435 -36.4867 40.5673 72.5651 -34.3545 40.2727 
71.3755 -33.2293 41.7132 74.8522 -40.8775 40.7716 74.2821 -38.8857 40.2612 
72.7058 -38.015 41.3274 75.9829 -39.7556 39.3786 75.3449 -37.7741 38.8002 
73.73 -36.9076 39.9022 77.0502 -38.6427 37.8396 76.4267 -36.6684 37.3825 
74.7071 -35.8228 38.4016 77.6159 -40.6207 38.249 78.6617 -39.5075 36.7582 
78.0992 -37.5208 36.386 75.8411 -34.6748 37.1078 74.2628 -33.8383 38.2899 
79.6629 -38.4067 35.2666 79.1505 -36.3925 34.9704 77.5841 -35.503 36.074 
80.671 -37.2714 33.875 80.3405 -35.2179 33.7484 78.8279 -34.3328 34.8685 
81.0852 -39.3038 34.0715 82.1223 -38.1398 32.6092 81.8081 -36.1026 32.5412 
77.0391 -33.4436 35.9707 75.458 -32.6616 37.137 78.3346 -32.1956 34.9832 
76.781 -31.3963 36.1591 79.9311 -32.8597 33.8545 79.6111 -30.8682 34.0674 
78.1118 -30.1512 35.2592 81.4319 -33.5772 32.5949 81.0664 -31.5351 32.7197 
82.8046 -34.3692 31.1663 82.4735 -32.28 31.3304 83.7571 -33.0363 29.758 
83.4114 -30.9549 29.9539 82.1223 -30.1973 31.5171 84.0774 -35.163 29.6193 
84.9331 -33.8137 28.0969 84.6337 -31.6726 28.318 85.1725 -35.9669 27.9182 
86.0351 -34.6145 26.3737 85.7827 -32.4522 26.5715 83.1501 -28.8552 30.2115 
81.9393 -28.1064 31.8858 80.8014 -29.4665 33.0058 84.3284 -29.5988 28.5385 
83.9943 -27.4896 28.6728 82.8829 -26.7421 30.4669 83.7521 -25.3297 29.012 
82.6987 -24.5749 30.8108 81.7751 -25.9634 32.172 83.6409 -23.1622 29.3887 
82.6152 -22.4116 31.2264 81.6428 -23.8298 32.6055 83.4589 -20.9969 29.6346 
82.4491 -20.2501 31.5178 81.521 -21.6719 32.9446 85.0884 -28.29 26.9591 
84.8098 -26.0711 27.2118 79.4992 -28.8338 34.3799 78.1867 -28.1499 35.8903 
76.8131 -29.4431 36.789 80.7811 -27.474 33.3846 79.5261 -26.8361 34.9642 
76.964 -27.4519 37.4533 75.6656 -28.8193 38.4719 75.4632 -30.7922 37.6604 
78.2922 -26.1495 36.4954 77.2106 -25.4787 38.2056 75.9213 -26.8216 39.2677 
74.2939 -30.214 39.343 74.1646 -32.1896 38.59 76.1673 -24.7855 39.9337 
74.9766 -26.2227 41.133 74.6464 -28.2289 40.2687 77.4435 -23.4411 38.8411 
76.4478 -22.7732 40.6637 75.1855 -24.1254 41.7464 78.5181 -24.1529 37.1504 
78.6019 -22.0513 37.6217 77.6061 -21.3744 39.4248 76.6222 -20.7059 41.216 
75.4626 -22.1003 42.4638 75.5648 -20.0103 42.9623 74.4523 -21.4093 44.2144 
74.2699 -23.4736 43.5553 73.3336 -22.8342 45.4243 73.136 -24.8814 44.7568 
74.0636 -25.5268 42.8828 73.3727 -20.7421 45.9869 72.2958 -22.1672 47.1849 
72.2393 -24.249 46.5596 72.907 -26.9403 43.9676 73.8483 -27.5799 42.102 
74.5194 -19.3313 44.8357 73.4168 -18.6485 46.4737 72.322 -20.0812 47.7104 
72.2602 -17.9806 48.1258 71.1999 -19.3885 49.3771 71.2753 -21.4882 48.9623 
71.1027 -17.2735 49.7313 70.0804 -18.6713 51.0235 70.0928 -20.7454 50.521 
72.1042 -15.8704 48.4465 70.939 -15.1417 50.1449 69.9268 -16.5456 51.4226 
73.2456 -16.6096 46.8236 73.0182 -14.498 47.0884 71.8362 -13.7717 48.7031 
71.2275 -23.6123 48.3269 70.9127 -25.5873 47.3299 71.9939 -26.2765 45.7325 
70.0482 -23.0065 49.9418 69.7077 -24.922 48.7853 76.627 -18.5872 41.6728 
75.6089 -17.9171 43.4824 76.5093 -16.4406 41.9958 75.5066 -15.7406 43.7532 
74.5605 -17.1626 45.176 74.3191 -15.0525 45.3453 79.6631 -22.8028 35.9065 
79.6294 -20.6345 36.2247 78.6053 -19.93 38.0674 80.666 -21.4388 34.4895 
80.5247 -19.2259 34.7549 79.5053 -18.4587 36.6057 68.921 -20.0595 52.1247 
68.9127 -22.0851 51.5953 79.6252 -24.959 35.3901 80.677 -23.6041 34.1044 
78.5139 -17.7717 38.431 77.6222 -19.2141 39.9308 77.502 -17.0337 40.2517 
78.2999 -15.5926 38.7702 77.2644 -14.8859 40.5887 68.8083 -17.9971 52.5099 
67.6289 -19.3579 53.566 67.5674 -21.3482 52.8996 67.5094 -17.3244 53.9803 
66.2811 -18.6834 54.9571 66.2676 -20.6675 54.3147 66.1894 -16.6745 55.4227 
64.8699 -18.011 56.2692 64.8809 -19.9863 55.6455 63.3463 -19.2711 56.7756 
63.2474 -21.1827 56.0386 64.7034 -21.8868 54.8104 63.0079 -23.0401 55.1553 
64.4896 -23.7431 53.8736 66.1744 -22.5764 53.5099 68.6523 -15.934 52.8505 
67.287 -15.243 54.2464 80.6013 -25.3993 33.8146 64.7637 -16.0127 56.72 
63.3442 -17.3286 57.4253 63.1327 -15.2934 57.758 61.6823 -16.583 58.3739 
61.6878 -18.5343 57.7297 73.3309 -29.6159 41.2734 67.4299 -23.2729 52.1249 
61.5391 -14.5684 58.8347 60.0362 -15.8369 59.3426 59.9723 -17.7651 58.5782 
59.9548 -13.8519 59.8706 58.3166 -15.0715 60.2168 58.2757 -17.0009 59.5006 
58.234 -13.073 60.7765 56.5768 -14.2587 61.0683 56.5278 -16.2018 60.3145 
59.73 -11.828 60.1901 58.133 -11.0017 61.1736 56.479 -12.2361 61.5609 
54.7134 -15.248 60.9358 54.532 -17.2321 59.9672 56.3551 -18.1652 59.3003 
52.6701 -16.1656 60.7122 52.4773 -18.1248 59.4805 54.4871 -19.2197 58.8838 
50.528 -16.9211 60.063 50.286 -18.956 58.7147 52.3154 -20.1218 58.2019 
50.582 -14.9316 61.7842 48.2001 -15.6431 61.1124 48.2444 -17.597 59.2261 
45.9271 -16.5755 60.245 46.1118 -18.3875 58.6146 48.1158 -19.5457 58.0109 
52.8073 -14.0899 62.1134 50.896 -12.9648 63.2714 48.6859 -13.8209 62.9598 
49.9993 -21.125 57.5532 52.7625 -12.0289 63.1121 51.2485 -11.2062 64.5896 
49.39 -12.1549 64.7253 54.6567 -13.0651 62.1308 47.245 -12.9564 64.6463 
46.3919 -14.5082 62.5214 54.4734 -21.2531 57.8899 56.3763 -20.1884 58.1997 
58.2445 -19.0565 58.5193 65.9113 -24.413 52.6578 61.4002 -12.5373 59.1728 
61.6107 -20.4392 56.9926 85.4149 -30.4121 26.772 72.9204 -31.6239 40.1884 
62.9417 -13.2784 58.0708 45.9947 -20.1078 57.1015 47.856 -21.2931 56.4305 
76.2474 -14.2505 42.3674 68.4602 -24.1865 50.5105 77.9496 -13.4203 39.112 
76.9016 -12.7362 40.9543 78.981 -14.104 37.3236 78.6314 -11.9321 37.6488 
77.5657 -11.2502 39.3994 79.6793 -12.6205 35.8262 79.2824 -10.4796 36.0515 
78.1765 -9.79203 37.7921 79.2937 -16.2485 36.8866 80.0097 -14.7688 35.4577 
80.2682 -16.9761 35.0054 77.0431 -9.11634 39.5428 76.3798 -10.5644 41.0711 
77.5878 -7.68203 37.9641 76.3526 -7.01988 39.6398 75.7724 -8.44623 41.1991 
75.0791 -6.39728 41.2808 74.4752 -7.81083 42.855 75.1053 -9.85902 42.7058 
73.763 -5.75065 42.8092 73.1253 -7.17712 44.3712 73.8022 -9.24528 44.3392 
72.4396 -8.5944 45.8763 73.0911 -10.6596 45.7604 74.4497 -11.2873 44.1685 
72.3687 -5.17716 44.3716 71.6712 -6.58019 45.8281 70.8999 -4.57298 45.8071 
70.2405 -5.9561 47.3297 70.9949 -7.95988 47.3395 69.399 -3.97208 47.2367 
68.6907 -5.35931 48.6729 69.5275 -7.3452 48.7828 74.4503 -4.34168 41.3828 
73.0607 -3.73608 42.9835 73.7825 -2.28741 41.6041 72.3628 -1.73347 43.0822 
71.6271 -3.18818 44.4501 70.8734 -1.20599 44.5255 70.1349 -2.65872 45.8619 
75.1722 -2.79749 40.0743 74.5688 -0.806919 40.3597 73.1638 -0.280842 41.8409 
71.6925 -10.0005 47.2758 76.9827 -5.58393 38.1745 75.7123 -4.92963 39.8262 
81.0672 -15.4106 33.6278 80.7124 -13.2715 33.9698 67.8719 -3.40466 48.6816 
[...]
POINT_DATA 7742
SCALARS scalars double
LOOKUP_TABLE default
0.00037362667027 0.00054662327557 0.00065400210592 0.00030346571123 0.00053686147817 0.00091032428882 0.00093966019969 0.00091980387985 0.0014959820644 
0.0014883640284 0.0023908484659 0.00238404385 0.0015341781891 0.0018536596756 0.0029297125041 0.0037479446159 0.001154404758 0.001493477449 
0.0023335123532 0.0045002965973 0.0057252832034 0.0037359442501 0.0015916723269 0.0024859966384 0.0036507669117 0.00031813482373 0.0005706821729 
0.00097313316948 0.0011529617128 0.0019007722014 0.00088667971343 0.0005757921296 0.00068234524958 0.00068054993405 0.00052761084841 0.00039956049448 
0.00031351014404 0.0002268701722 0.00029817392007 0.00016667749888 0.00018282943089 0.00032910920257 0.00010207860674 0.00012354001193 0.00021993310123 
9.2730247127e-05 5.6319416111e-05 6.8860551017e-05 3.7809290343e-05 3.9177992438e-05 7.0884210503e-05 3.0922195131e-05 2.0537123643e-05 2.1435135415e-05 
5.1729730058e-05 2.829499247e-05 1.6678405845e-05 1.523819494e-05 8.8100391944e-06 1.0865935206e-05 2.0808774829e-05 1.1170655573e-05 7.9885899723e-06 
3.8798696401e-05 2.8620607958e-05 1.4952129055e-05 1.5154797234e-05 7.923460539e-06 7.8519225568e-06 5.2937514442e-05 2.8552324231e-05 4.1508987149e-06 
4.0171065348e-06 5.697213899e-06 0.00072869584827 0.0012443702497 0.00042956646121 0.00045044512444 0.00076243633429 0.0002662535692 0.00027259085868 
0.00046065992514 0.00076855551019 0.0012468402388 0.0020090976542 0.0020449307056 0.0031740944405 0.0030709305082 0.0032124609705 0.0049007134996 
0.0047580801474 0.0013060635251 0.0020702098973 0.00039933384512 0.00025154704278 0.00014510847887 0.00015360979409 0.0032211884019 0.004957286292 
0.0042157713515 0.0063909108199 0.0062017762609 0.0095117423871 0.0093127828458 0.0061333752096 0.009574808195 0.014186800339 0.013980936581 
0.014078920526 0.020649096672 0.020493748711 0.020689490537 0.029909653737 0.02961609204 0.0200599929 0.013640041699 0.0069838637828 
0.0071137006489 0.01041178197 0.0069814987539 0.01031005364 0.0099845132817 0.014720223841 0.015164380946 0.0045726887424 0.0066405089014 
0.0043450531911 0.0054542803504 0.0082612627362 0.0029694862002 0.0020537492055 0.0018854039028 0.0027664879852 0.028453805049 0.040420675282 
0.042078153858 0.012441045692 0.018303944149 0.021282427433 0.018068108374 0.026248618063 0.026237984556 0.025041255728 0.035573721575 
0.037030134873 0.017390232832 0.024770057542 0.035080953476 0.049471436394 0.050930179773 0.035047027296 0.048801668659 0.048778652512 
0.047217384327 0.064592507857 0.066677597235 0.033937324224 0.045429674838 0.0620774067 0.066878686844 0.067174497701 0.089385702447 
0.089139218648 0.089735847513 0.11758884037 0.11691659298 0.089296863303 0.11780704199 0.086093449951 0.11446943863 0.11420926964 
0.14917889847 0.14952168346 0.085487425958 0.11393383605 0.14982889469 0.0850473438 0.11318026077 0.1491336762 0.19174077741 
0.1921405537 0.15331503071 0.19199958877 0.24262260617 0.2424590714 0.30291198162 0.30255773408 0.24351690484 0.37120117842 
0.36960360112 0.30143864771 0.44577818978 0.44406533047 0.3686125346 0.24140644592 0.30188891994 0.15224007465 0.15204200695 
0.11699512575 0.19440858246 0.19430314515 0.14669320847 0.11182438632 0.088402892791 0.18791943087 0.18510522586 0.14343873759 
0.08374865762 0.065429245016 0.15364850009 0.11635996685 0.10912713509 0.19753495569 0.15795005677 0.12101827142 0.23455122706 
0.25018804541 0.20373411587 0.15886711921 0.12086701229 0.1221758012 0.091512656458 0.091244279931 0.06731971391 0.067187315372 
0.091306796537 0.067304563859 0.048827558041 0.04906271142 0.067689236397 0.088921650312 0.090950885585 0.067752682388 0.049009954796 
0.049717659361 0.035383435132 0.034891091798 0.035746553282 0.024997016581 0.0250214182 0.050112547414 0.035605231994 0.024932994151 
0.068305145793 0.068857514318 0.050169016031 0.035049561718 0.035888741683 0.049525120867 0.024783233017 0.025780321508 0.16034184098 
0.12237660323 0.16203713573 0.12440968978 0.092783772013 0.09432325467 0.2926026911 0.31274964955 0.25843970883 0.35982698883 
0.38286116446 0.32283024145 0.017364520282 0.017419138617 0.23687710085 0.29469702429 0.26038392751 0.20439063311 0.20618998793 
0.26119657906 0.20634341513 0.01744564566 0.011938445254 0.012079275987 0.011962999137 0.0080854907805 0.0082049387097 0.0080880910732 
0.0053978128354 0.0054828075197 0.0036074298762 0.003643583267 0.0055303272934 0.0038366408815 0.0058712398669 0.0083405841722 0.017585544243 
0.012069643397 0.24509890897 0.0054027246416 0.0035518180752 0.0036645840502 0.0023735192891 0.0023279407881 0.081394218589 0.012171923753 
0.0025768799922 0.0016490170785 0.0014947750464 0.0017175756854 0.0010730880505 0.0010180666027 0.0011578718487 0.00071548676351 0.00065195059036 
0.0018325161636 0.0013791111445 0.00084916293855 0.00042897707624 0.00037457884949 0.00059740000821 0.00024407352294 0.00020990417298 0.00038149759997 
0.00013220439551 0.00011272539468 0.00021108266309 0.00016541846404 8.3422127256e-05 6.7028209276e-05 4.0646610894e-05 3.4776516729e-05 5.9508894323e-05 
0.00030601714881 0.00017364083981 9.2211963232e-05 0.00010657742737 0.00029680085578 0.00017950135201 0.00010342373228 0.00051622468934 5.5428641288e-05 
4.7303691562e-05 0.00039233176379 0.00065689901913 0.00096917157363 0.0086749580905 0.0027053074323 0.0023599536435 0.19062479213 0.061601102658 
0.0039804724964 3.0576651899e-05 5.5093945988e-05 0.16115296359 0.01744260799 0.25954166633 0.20450654211 0.32147754247 0.32099673626 
0.25951349671 0.39162635781 0.39101872778 0.32160971049 0.32498831789 0.39282268406 0.39698546173 0.25925308743 0.20598631732 
0.32195649884 0.26073766128 0.20634640795 0.20865953688 0.16203362993 0.16066843432 0.16502016779 0.12576457425 0.12393054726 
0.094437081153 0.093612989896 0.12370903182 0.12637686017 0.095429179676 0.095871174264 0.070918313985 0.070620204946 0.071644503113 
0.052399975625 0.051726000827 0.21034542327 0.16340540789 0.20859404833 0.16347501398 0.1258252888 0.12560720765 0.095218358629 
0.26167545355 0.25904200863 0.20679631873 0.070198076339 0.32196924957 0.26262060687 0.46991330828 0.46910322145 0.052191076399 
0.037727267795 0.037483513045 0.39276080879 0.39110565287 0.071195988506 0.052138127666 0.03760681189 0.095130173218 0.070622366821 
0.46609399354 0.46548705271 0.39106408685 0.46602833525 0.54562794738 0.54523316368 0.62885551179 0.62383385115 0.54063642372 
0.70546400257 0.70538351886 0.62217804631 0.54651900882 0.62937645166 0.71054486553 0.62974475266 0.71280377333 0.71150515692 
0.79082337795 0.78954016605 0.54243958801 0.46148233761 0.54470509348 0.6288807933 0.4640889249 0.38747172954 0.46753411829 
0.39216629485 0.38898962681 0.32370058839 0.32008532239 0.31879175825 0.037531303915 0.026755523298 0.026633752155 0.051837054789 
0.03749561654 0.026727816999 0.051957535159 0.037636762406 0.026726932657 0.070658244005 0.09447315251 0.091817844432 0.068375540031 
0.32139992732 0.1607028061 0.12266030558 0.0371220213 0.051550426596 0.03634397861 0.050247575773 0.093231341144 0.069492927445 
0.026647986861 0.025949901956 0.86056083965 0.85616501983 0.78364099211 0.46218474349 0.55502915648 0.058946909388 0.30278844365 
0.37158057945 0.36791983999 0.44483486933 0.44386906884 0.52702652357 0.52518424895 0.52812184762 0.61395598756 0.61120820843 
0.61237179484 0.70006778975 0.69981349062 0.69967108965 0.7820260305 0.78134315609 0.85615110948 0.85564945916 0.77961611818 
0.85478321447 0.91761421535 0.91628755155 0.78163226539 0.69673238441 0.60964620238 0.91252299286 0.8513647012 0.77386052301 
0.69219108398 0.84443258635 0.90997808989 0.95878321337 0.96422872541 0.71261536413 0.79167295289 0.61390577021 0.70001265431 
0.9616684877 0.8454602364 0.90992362891 0.86427095023 0.95829819508 0.24164651883 0.29975317563 0.36845340989 0.36642049413 
0.44453048915 0.44695354234 0.52950362582 0.5288491631 0.2379079105 0.29717424728 0.060867772608 0.018541551026 0.018578587999 
0.43307019962 0.065898551491 0.62746271549 0.54499835359 0.00021767096177 0.00040981813248 0.00066533531387 0.61155803615 0.024944389554 
0.52446743426 0.51727884712 0.59977101802 0.52678063915 0.44789750771 0.61105801981 0.018539378861 0.012674603353 0.012707020143 
0.018632022545 0.012736490422 0.018493311193 0.026530968057 0.0085797011498 0.0085369955198 0.012668386984 0.86334968707 0.012630429696 
0.0085519576792 0.0085235123277 0.012598668651 0.0085563980823 0.0056569039327 0.0056490678758 0.0085559503159 0.0056991467575 0.0056809876302 
0.018334907284 0.012619895642 0.0085779327285 0.0057243469719 0.18813257219 0.18505320655 0.23561275992 0.050390762345 0.0091927123434 
0.069230246317 0.050909676146 0.051672638559 0.037173543452 0.036680609078 0.03769722274 0.026788340242 0.026313626323 0.018671031343 
0.018344695007 0.025887100283 0.012820142297 0.012571919359 0.018098991685 0.012367675095 0.017887157797 0.025620123252 0.027169371819 
0.018988908131 0.012295838501 0.012722394284 0.018467126962 0.017179347625 0.024722879308 0.011776375041 0.011670978675 0.017146381615 
0.011617734362 0.016406470111 0.023859804761 0.011058165032 0.015443720665 0.022592774067 0.0078881332948 0.0077956906177 0.0051934723543 
0.0051099704355 0.0077619776334 0.0033548910906 0.0032892182862 0.0050741965265 0.0032471859996 0.0047990520271 0.0073819553061 0.0069392459349 
0.010498831611 0.0020515084197 0.0020203470129 0.0030504402119 0.0021203847973 0.0097287176333 0.014539983369 0.013798864477 0.020603975939 
0.021626156257 0.030140359595 0.031239517159 0.029172056831 0.041775234425 0.043038651853 0.0090695050509 0.013103509261 0.019736605671 
0.019057679058 0.027989583647 0.0062268414427 0.0057994809794 0.0084760145019 0.012478310079 0.040579440199 0.0053221830632 0.0079132366934 
0.0054632920959 0.0035394340096 0.0044814819546 0.057120474015 0.058719213067 0.032347106841 0.043117789924 0.0039419068879 0.0035643722168 
0.0022728184734 0.0022667379857 0.060202068666 0.035921458293 0.051897522906 0.038114738535 0.052531254205 0.038923109359 0.027627100425 
0.018488555037 0.012451821994 0.018025494599 0.0084238726738 0.0083935074147 0.012441866758 0.0055553441363 0.0056219310913 0.008441610253 
0.070904334727 0.07170466502 0.053580751763 0.072767400013 0.06123229926 0.044776467221 0.09595057081 0.098024901813 0.082631542088 
0.094461892416 0.12487834638 0.12630697453 0.11018367004 0.090129546158 0.0671861674 0.12884451767 0.049131886561 0.069884460529 
0.093634584478 0.00030799884578 0.00051311892592 0.00031011052319 0.00051643811324 0.00084111542837 0.001348104925 0.0012842525594 0.0027923836569 
0.0024525203699 0.0036068386239 0.0017021275561 0.0014898612443 0.0022002400469 0.0018752767247 0.001133318513 0.0010153867063 0.013017213055 
0.0088188181913 0.0086648411389 0.036486217744 0.026776470072 0.68573504254 0.76997708342 0.68464220807 0.76803036374 0.59840408652 
0.59804706636 0.51346194972 0.52908176629 0.61705381755 0.00015682172424 0.18225995412 0.23308069153 0.29541286954 0.001651490589 
0.0014447364632 0.039568353987 0.055743742467 0.053587530662 0.075075324384 0.077782527714 0.027102590759 0.037589752469 0.018086114523 
0.025656705755 0.10253754286 0.10649321607 0.079809862128 0.1000909024 0.13425689636 0.13752891491 0.14365304653 0.016869555211 
0.024398498517 0.036358790575 0.035535260411 0.051419818989 0.052808069273 0.0014775099599 0.0016022765584 0.0025610784864 0.0010119030033 
0.0011043909396 0.0014221342135 0.16152169022 0.20329510311 0.15999448811 0.12494345187 0.25535889016 0.20493690476 0.16145846881 
0.25653360636 0.20597442308 0.16205699081 0.12279774639 0.25781564048 0.20785785913 0.16313245128 0.3174219051 0.2587857641 
0.38474026281 0.31682056321 0.2092022834 0.16471004173 0.12452593538 0.44470401104 0.017712682398 0.092796769518 0.78352302577 
0.012299242573 0.0082341418566 0.98956550217 0.91663772735 0.91717093879 0.85669736432 0.92112870673 0.96248424755 0.96161775718 
0.99051411863 0.99026584201 1 0.0085071325098 0.12995389107 0.17066987557 0.096149695849 0.12513195179 0.16583424847 
0.091643423604 0.1167209743 0.157194386 0.20427173244 0.21607557743 8.7932981348e-05 9.0209293781e-05 4.9742728672e-05 5.1516358073e-05 
0.011733244923 0.0037065539474 0.0037231725281 0.00089283393088 0.00087236993724 0.0013321818985 0.00054006495402 0.00052591267042 0.00081520962767 
0.00032031246774 0.00031017711473 0.00049332549315 0.00028962843324 0.00048689001503 0.00081809386163 0.00017657703695 0.00017189480863 0.00029304502544 
0.00018290736468 0.00010376203636 0.00010024101506 0.0001232156582 7.0053135802e-05 5.8766607546e-05 0.00021285810136 0.00013310785004 7.6370894556e-05 
0.00022933897509 0.00016513746703 9.4898036313e-05 4.2879759667e-05 3.9369860602e-05 2.3717625329e-05 2.1684431734e-05 3.2819816044e-05 1.2865469926e-05 
1.1737290395e-05 1.8003791239e-05 5.3575084059e-05 6.5379639856e-05 3.6777921226e-05 3.0028937785e-05 2.0257451085e-05 1.6338559896e-05 2.0557395064e-05 
1.126971316e-05 1.1042602354e-05 1.1298385468e-05 6.0816784992e-06 6.0604952732e-06 3.2271148843e-06 3.191862036e-06 5.9420500074e-06 3.2363815228e-06 
1.6899298262e-06 1.674169311e-06 8.7827842313e-06 3.7235973218e-05 2.0542385248e-05 6.0562142112e-06 3.212833536e-06 1.6896262767e-06 1.6509631635e-06 
3.1403090066e-06 1.6104316591e-06 2.5235320414e-06 4.8595262613e-06 3.8877702538e-06 7.4706089317e-06 3.7300404046e-05 2.0423141002e-05 1.129058639e-05 
6.6453699256e-05 6.6111129325e-05 3.686068089e-05 6.1778103592e-06 9.4260567616e-06 3.1423029731e-06 4.8935860366e-06 1.2759169989e-06 1.9972685039e-06 
7.9988969678e-07 6.3372072723e-07 1.0416302708e-06 8.100893968e-07 3.99869659e-07 3.9091439383e-07 4.115933036e-07 2.0108676207e-07 1.9488651914e-07 
8.2621324256e-07 4.1681862301e-07 2.0400972251e-07 8.28892072e-07 4.1979330658e-07 2.0615833254e-07 8.3321642427e-07 4.6207734561e-07 2.2806694407e-07 
2.4832879685e-07 1.1866366033e-07 1.0952060818e-07 1.2354494868e-07 5.7661412474e-08 5.6297895495e-08 4.9626247862e-07 2.5484709863e-07 9.7074179662e-08 
9.5459181657e-08 9.9505434806e-08 4.6144071976e-08 4.5554924758e-08 2.0484050317e-05 1.1215848034e-05 9.130271069e-07 9.8056823224e-07 5.0891877951e-07 
1.7497787953e-05 3.2196644794e-05 0.0005023931585 0.00082153285443 5.6102535591e-05 0.00010027953796 0.00035810212328 0.00038810682761 0.00028149742713 
5.7117214791e-05 4.4603166565e-08 9.1580066057e-08 2.0900591591e-08 2.070266173e-08 4.2589584752e-08 9.0741118271e-08 1.9012512605e-07 2.1349566312e-08 
9.391648705e-09 9.4388864591e-09 2.7813724097e-07 1.3488387614e-07 5.6196707855e-07 3.0674785767e-07 1.4858114238e-07 1.9462849464e-07 8.7249298759e-08 
6.6311822132e-08 0.00017560231199 1.9614778759e-08 4.1458970371e-08 6.1639157443e-06 4.0773477215e-07 2.4049655685e-07 1.0904282352e-07 6.2693221196e-07 
8.2758784549e-07 4.9190222946e-07 1.1222720777e-06 1.2459057015e-06 2.1724415936e-06 2.4165135103e-06 1.6093888399e-06 3.1124829396e-06 1.9043171499e-06 
9.6383998954e-07 1.0180986734e-06 1.9586791942e-06 1.8625861154e-06 3.5460135829e-06 3.7298239154e-06 1.6767987467e-06 3.2006606193e-06 5.8902054359e-06 
4.1472844894e-06 2.6236087834e-08 2.5317227838e-08 5.1472018433e-08 0.00062140190919 0.0013677229785 0.0013553211025 2.3679716293e-08 1.156848592e-08 
1.045657287e-08 0.00011656085605 1.4816291238e-07 5.9780042006e-08 4.4940255608e-08 2.3396701639e-08 1.8808143945e-08 3.7275318002e-08 3.2181916117e-07 
1.8100942556e-07 7.7928148892e-08 2.9878909237e-08 3.8288512802e-07 2.3690739389e-07 1.0474144644e-07 6.6573051173e-06 0.00010103450084 8.0847657441e-06 
4.1914150889e-06 7.2350828437e-05 9.7020610734e-05 5.330381723e-05 9.8535829887e-05 5.3490374651e-05 2.8037641478e-05 0.00018097486444 0.00017331370751 
9.3827144624e-05 5.0990851481e-05 2.8280258206e-05 2.7103342141e-05 1.4994512783e-05 1.4797139974e-05 8.7018104641e-05 4.8046958759e-05 0.00013174567865 
0.085075986372 0.085197572171 0.11711410298 1.0846076572e-05 0.0083850514241 0.00830740424 0.0086158784704 0.0057170242107 0.0057895112621 
0.0037742499781 0.003823211586 0.012183436106 0.0011035629658 6.2919583587e-08 0.16668307433 0.14358005678 0.18527513114 0.15695750742 
0.12034486538 0.010685112737 0.015847108479 2.6504206633e-08 0.91784893123 0.85951672705 0.0075451316435 0.0052757685163 0.0010313340037 
0.001028317935 0.0011262125778 0.00071712652991 0.0006498927182 0.070801563819 0.051587230316 0.055484568933 0.039950717787 0.037056570025 
0.075885362805 0.060200330486 0.043100823451 0.095955484723 0.1024009082 0.082225738209 0.06545830306 0.046909049732 0.11076398812 
0.12694608752 4.8910369186e-09 4.5702714925e-09 1.9569836774e-09 1.9515257619e-09 4.2813038175e-09 0.99091175349 1.4629480474e-05 7.6053428219e-06 
0.00047320247957 0.00033983657737 0.0001998226992 0.00056677290012 0.0003438368432 0.0002026751523 0.25877856798 0.52672660239 0.074048511397 
0.073130153931 0.36603817826 0.36513142116 0.44242451429 0.2955609158 0.35340306925 0.4283491869 0.51202934156 0.35224931328 
0.43022891469 0.035295844429 0.071219068521 0.049619245107 0.067889021801 0.019536104775 0.013420071998 0.022822453852 0.015655845469 
0.017440342097 0.012008861482 0.010715401156 0.0081483110673 0.0071996405386 0.0090798510296 0.00017686734487 0.00030711257239 9.901723674e-05 
0.00017211486905 0.00030352788114 0.00026924061374 0.00047110553293 0.00052726307024 0.00043579920473 0.00075734823127 0.00015225910824 0.00024947689526 
9.5899579581e-05 8.3460128418e-05 0.00013923992369 5.5041337549e-05 5.414618613e-05 0.00070817839778 0.001182147543 5.1753139888e-05 4.452592281e-05 
7.6346094576e-05 0.00084820365434 0.28416875727 0.28398421354 2.4925032995e-06 4.7446586489e-06 9.0707928794e-06 2.4204791861e-06 4.7657520602e-06 
9.1540290776e-06 1.7226221986e-05 1.2482938244e-06 1.1985398283e-06 2.4142168122e-06 6.0827489457e-07 5.856259051e-07 1.1993729086e-06 5.8215522554e-07 
1.1487261218e-06 2.3169695057e-06 2.7922647234e-07 2.7630620218e-07 5.4923363374e-07 2.8760116856e-07 1.3615431003e-07 1.310470091e-07 3.7389613084e-07 
1.7449341466e-07 7.6818904555e-07 3.7261436525e-07 1.7556174235e-07 6.2155737537e-08 5.9578022131e-08 1.2930832703e-07 8.0580531664e-08 3.6296622763e-08 
2.7516374146e-08 0.032377013154 0.025295236467 0.21212008879 0.23373579892 0.20008506443 0.25317894054 0.21009945753 0.16421495254 
1.5805612518e-06 2.845015622e-05 2.751081255e-05 2.8949598547e-05 1.5255319227e-05 1.4854728878e-05 0.00019771767623 0.00017260881523 0.00023206752054 
0.00012878944626 0.00013816086609 7.4086396054e-05 6.465434985e-05 0.00041584745784 0.00023964930182 0.00073477462015 0.00040566518594 3.6811643491e-06 
2.3340272879e-06 1.1869853732e-06 1.657437486e-08 1.259060823e-08 2.7105370898e-08 0.00011471765003 0.12367973147 0.47037161764 0.54930422151 
0.47723765111 0.40339022082 0.0011000754728 0.0018484598386 1.1032552186e-08 1.0886193184e-08 7.8366304005e-06 0.017901166816 0.025846966132 
4.4589898037e-08 0.00010242344585 0.02526891432 3.0150025188e-05 2.5949127871e-07 4.9951061212e-07 1.0655102081e-06 0.0055512064108 0.0049846848414 
0.0074744232201 0.0032605157729 0.0030663087085 0.0046794264263 0.0027937599154 0.0042302068488 0.0069804192765 0.0018000845495 0.0016364179076 
0.0025076027762 0.0038981223872 0.0063999910969 0.0059491864662 0.0096022015428 0.010336936795 0.0090604197089 0.014303068294 0.015188066367 
0.00087926239966 0.00054359390443 0.0013874233643 0.00099359985744 0.0005639770119 0.017808445757 0.025793068043 0.036631057883 9.2757189728e-09 
8.9215771731e-09 1.8725556478e-08 4.2580098914e-09 4.2048481514e-09 4.0018335378e-09 8.5199396157e-09 3.787793556e-09 7.5906430259e-09 1.6008432371e-08 
1.9071000872e-09 1.8935245708e-09 0.026176341136 0.028289010237 0.019757961774 0.01826104031 0.030910303045 0.021656075147 0.033892293066 
0.023760602776 5.8413571713e-05 0.00010180851072 5.9951505461e-05 0.00010401444977 0.00017514383444 3.2893359681e-05 3.3829897604e-05 0.00017853956696 